 Output coordinates in angstroms (scale by  1.889725989 to convert to a.u.)

  No.       Tag          Charge          X              Y              Z
 ---- ---------------- ---------- -------------- -------------- --------------
    1 C                    6.0000     0.00000000    -0.00000000     0.00000000

         Total SCF energy =    -37.604675072922

 Vector    2  Occ=2.000000D+00  E=-7.255055D-01

 Vector    3  Occ=2.000000D+00  E=-3.584161D-01

 Vector    4  Occ=0.000000D+00  E= 1.856486D-02

 Vector    5  Occ=0.000000D+00  E= 1.856486D-02

 Vector    6  Occ=0.000000D+00  E= 4.872234D-02

 Vector    7  Occ=0.000000D+00  E= 7.933894D-02

 Vector    8  Occ=0.000000D+00  E= 9.494963D-02

 Vector    9  Occ=0.000000D+00  E= 9.494963D-02

 Vector   10  Occ=0.000000D+00  E= 2.084002D-01

 Vector   11  Occ=0.000000D+00  E= 2.190632D-01

 Vector   12  Occ=0.000000D+00  E= 2.190632D-01

 Vector   13  Occ=0.000000D+00  E= 2.275119D-01

 Vector   14  Occ=0.000000D+00  E= 2.275119D-01

 Vector   15  Occ=0.000000D+00  E= 2.332086D-01

 Vector   16  Occ=0.000000D+00  E= 3.083505D-01

 Vector   17  Occ=0.000000D+00  E= 3.229714D-01

 Vector   18  Occ=0.000000D+00  E= 3.229714D-01

 Vector   19  Occ=0.000000D+00  E= 5.365824D-01

       Multipole analysis of the density wrt the origin
       ------------------------------------------------

     L   x y z        total         open         nuclear
     -   - - -        -----         ----         -------
     0   0 0 0     -0.000000      0.000000      6.000000

     1   1 0 0      0.000000      0.000000      0.000000
     1   0 1 0      0.000000      0.000000     -0.000000
     1   0 0 1      0.000000      0.000000      0.000000

     2   2 0 0     -6.902064      0.000000      0.000000
     2   1 1 0      0.764080      0.000000     -0.000000
     2   1 0 1      0.025791      0.000000      0.000000
     2   0 2 0     -3.955808      0.000000      0.000000
     2   0 1 1     -0.006291      0.000000      0.000000

 Total times  cpu:        8.1s     wall:        9.7s
